
(:series, :groups, :ionizationenergies, :oxidationstates, :isotopes, :ionicradii, :screeningconstants, :alembic_version, :elements)

-------------
series :

annotation
atomic_number
atomic_radius
atomic_volume
block
boiling_point
density
description
dipole_polarizability
electron_affinity
electronic_configuration
evaporation_heat
fusion_heat
group_id
lattice_constant
lattice_structure
melting_point
name
period
series_id
specific_heat_capacity
symbol
thermal_conductivity
vdw_radius
covalent_radius_cordero
covalent_radius_pyykko
en_pauling
en_allen
jmol_color
cpk_color
proton_affinity
gas_basicity
heat_of_formation
c6
covalent_radius_bragg
vdw_radius_bondi
vdw_radius_truhlar
vdw_radius_rt
vdw_radius_batsanov
vdw_radius_dreiding
vdw_radius_uff
vdw_radius_mm3
abundance_crust
abundance_sea
molcas_gv_color
en_ghosh
vdw_radius_alvarez
c6_gb
atomic_weight
atomic_weight_uncertainty
is_monoisotopic
is_radioactive
cas
atomic_radius_rahm
geochemical_class
goldschmidt_class
metallic_radius
metallic_radius_c12
covalent_radius_pyykko_double
covalent_radius_pyykko_triple
discoverers
discovery_year
discovery_location
name_origin
sources
uses
mendeleev_number
dipole_polarizability_unc
pettifor_number
glawe_number
molar_heat_capacity


----------------
elements.group_id
gr
julia> show(dfs.groups, allrows=true)
18×3 DataFrame
 Row │ group_id  symbol  name
     │ Int64     String  String
─────┼───────────────────────────────────
   1 │        1  IA      Alkali metals
   2 │        2  IIA     Alkaline earths
   3 │        3  IIIB
   4 │        4  IVB
   5 │        5  VB
   6 │        6  VIB
   7 │        7  VIIB
   8 │        8  VIIIB
   9 │        9  VIIIB
  10 │       10  VIIIB
  11 │       11  IB      Coinage metals
  12 │       12  IIB
  13 │       13  IIIA    Boron group
  14 │       14  IVA     Carbon group
  15 │       15  VA      Pnictogens
  16 │       16  VIA     Chalcogens
  17 │       17  VIIA    Halogens
  18 │       18  VIIIA   Noble gases
