
annotation
atomic_number
atomic_radius
atomic_volume
block
boiling_point
density
description
dipole_polarizability
electron_affinity
electronic_configuration
evaporation_heat
fusion_heat
group_id
lattice_constant
lattice_structure
melting_point
name
period
series_id
specific_heat_capacity
symbol
thermal_conductivity
vdw_radius
covalent_radius_cordero
covalent_radius_pyykko
en_pauling
en_allen
jmol_color
cpk_color
proton_affinity
gas_basicity
heat_of_formation
c6
covalent_radius_bragg
vdw_radius_bondi
vdw_radius_truhlar
vdw_radius_rt
vdw_radius_batsanov
vdw_radius_dreiding
vdw_radius_uff
vdw_radius_mm3
abundance_crust
abundance_sea
molcas_gv_color
en_ghosh
vdw_radius_alvarez
c6_gb
atomic_weight
atomic_weight_uncertainty
is_monoisotopic
is_radioactive
cas
atomic_radius_rahm
geochemical_class
goldschmidt_class
metallic_radius
metallic_radius_c12
covalent_radius_pyykko_double
covalent_radius_pyykko_triple
discoverers
discovery_year
discovery_location
name_origin
sources
uses
mendeleev_number
dipole_polarizability_unc
pettifor_number
glawe_number
molar_heat_capacity
